# vtk DataFile Version 2.0
receivers generated by ray-launching solver
ASCII
DATASET POLYDATA

POINTS 707 float
 0 -1.5 2
 0 -1 2
 0 -0.5 2
 0 0 2
 0 0.5 2
 0 1 2
 0 1.5 2
 0.5 -1.5 2
 0.5 -1 2
 0.5 -0.5 2
 0.5 0 2
 0.5 0.5 2
 0.5 1 2
 0.5 1.5 2
 1 -1.5 2
 1 -1 2
 1 -0.5 2
 1 0 2
 1 0.5 2
 1 1 2
 1 1.5 2
 1.5 -1.5 2
 1.5 -1 2
 1.5 -0.5 2
 1.5 0 2
 1.5 0.5 2
 1.5 1 2
 1.5 1.5 2
 2 -1.5 2
 2 -1 2
 2 -0.5 2
 2 0 2
 2 0.5 2
 2 1 2
 2 1.5 2
 2.5 -1.5 2
 2.5 -1 2
 2.5 -0.5 2
 2.5 0 2
 2.5 0.5 2
 2.5 1 2
 2.5 1.5 2
 3 -1.5 2
 3 -1 2
 3 -0.5 2
 3 0 2
 3 0.5 2
 3 1 2
 3 1.5 2
 3.5 -1.5 2
 3.5 -1 2
 3.5 -0.5 2
 3.5 0 2
 3.5 0.5 2
 3.5 1 2
 3.5 1.5 2
 4 -1.5 2
 4 -1 2
 4 -0.5 2
 4 0 2
 4 0.5 2
 4 1 2
 4 1.5 2
 4.5 -1.5 2
 4.5 -1 2
 4.5 -0.5 2
 4.5 0 2
 4.5 0.5 2
 4.5 1 2
 4.5 1.5 2
 5 -1.5 2
 5 -1 2
 5 -0.5 2
 5 0 2
 5 0.5 2
 5 1 2
 5 1.5 2
 5.5 -1.5 2
 5.5 -1 2
 5.5 -0.5 2
 5.5 0 2
 5.5 0.5 2
 5.5 1 2
 5.5 1.5 2
 6 -1.5 2
 6 -1 2
 6 -0.5 2
 6 0 2
 6 0.5 2
 6 1 2
 6 1.5 2
 6.5 -1.5 2
 6.5 -1 2
 6.5 -0.5 2
 6.5 0 2
 6.5 0.5 2
 6.5 1 2
 6.5 1.5 2
 7 -1.5 2
 7 -1 2
 7 -0.5 2
 7 0 2
 7 0.5 2
 7 1 2
 7 1.5 2
 7.5 -1.5 2
 7.5 -1 2
 7.5 -0.5 2
 7.5 0 2
 7.5 0.5 2
 7.5 1 2
 7.5 1.5 2
 8 -1.5 2
 8 -1 2
 8 -0.5 2
 8 0 2
 8 0.5 2
 8 1 2
 8 1.5 2
 8.5 -1.5 2
 8.5 -1 2
 8.5 -0.5 2
 8.5 0 2
 8.5 0.5 2
 8.5 1 2
 8.5 1.5 2
 9 -1.5 2
 9 -1 2
 9 -0.5 2
 9 0 2
 9 0.5 2
 9 1 2
 9 1.5 2
 9.5 -1.5 2
 9.5 -1 2
 9.5 -0.5 2
 9.5 0 2
 9.5 0.5 2
 9.5 1 2
 9.5 1.5 2
 10 -1.5 2
 10 -1 2
 10 -0.5 2
 10 0 2
 10 0.5 2
 10 1 2
 10 1.5 2
 10.5 -1.5 2
 10.5 -1 2
 10.5 -0.5 2
 10.5 0 2
 10.5 0.5 2
 10.5 1 2
 10.5 1.5 2
 11 -1.5 2
 11 -1 2
 11 -0.5 2
 11 0 2
 11 0.5 2
 11 1 2
 11 1.5 2
 11.5 -1.5 2
 11.5 -1 2
 11.5 -0.5 2
 11.5 0 2
 11.5 0.5 2
 11.5 1 2
 11.5 1.5 2
 12 -1.5 2
 12 -1 2
 12 -0.5 2
 12 0 2
 12 0.5 2
 12 1 2
 12 1.5 2
 12.5 -1.5 2
 12.5 -1 2
 12.5 -0.5 2
 12.5 0 2
 12.5 0.5 2
 12.5 1 2
 12.5 1.5 2
 13 -1.5 2
 13 -1 2
 13 -0.5 2
 13 0 2
 13 0.5 2
 13 1 2
 13 1.5 2
 13.5 -1.5 2
 13.5 -1 2
 13.5 -0.5 2
 13.5 0 2
 13.5 0.5 2
 13.5 1 2
 13.5 1.5 2
 14 -1.5 2
 14 -1 2
 14 -0.5 2
 14 0 2
 14 0.5 2
 14 1 2
 14 1.5 2
 14.5 -1.5 2
 14.5 -1 2
 14.5 -0.5 2
 14.5 0 2
 14.5 0.5 2
 14.5 1 2
 14.5 1.5 2
 15 -1.5 2
 15 -1 2
 15 -0.5 2
 15 0 2
 15 0.5 2
 15 1 2
 15 1.5 2
 15.5 -1.5 2
 15.5 -1 2
 15.5 -0.5 2
 15.5 0 2
 15.5 0.5 2
 15.5 1 2
 15.5 1.5 2
 16 -1.5 2
 16 -1 2
 16 -0.5 2
 16 0 2
 16 0.5 2
 16 1 2
 16 1.5 2
 16.5 -1.5 2
 16.5 -1 2
 16.5 -0.5 2
 16.5 0 2
 16.5 0.5 2
 16.5 1 2
 16.5 1.5 2
 17 -1.5 2
 17 -1 2
 17 -0.5 2
 17 0 2
 17 0.5 2
 17 1 2
 17 1.5 2
 17.5 -1.5 2
 17.5 -1 2
 17.5 -0.5 2
 17.5 0 2
 17.5 0.5 2
 17.5 1 2
 17.5 1.5 2
 18 -1.5 2
 18 -1 2
 18 -0.5 2
 18 0 2
 18 0.5 2
 18 1 2
 18 1.5 2
 18.5 -1.5 2
 18.5 -1 2
 18.5 -0.5 2
 18.5 0 2
 18.5 0.5 2
 18.5 1 2
 18.5 1.5 2
 19 -1.5 2
 19 -1 2
 19 -0.5 2
 19 0 2
 19 0.5 2
 19 1 2
 19 1.5 2
 19.5 -1.5 2
 19.5 -1 2
 19.5 -0.5 2
 19.5 0 2
 19.5 0.5 2
 19.5 1 2
 19.5 1.5 2
 20 -1.5 2
 20 -1 2
 20 -0.5 2
 20 0 2
 20 0.5 2
 20 1 2
 20 1.5 2
 20.5 -1.5 2
 20.5 -1 2
 20.5 -0.5 2
 20.5 0 2
 20.5 0.5 2
 20.5 1 2
 20.5 1.5 2
 21 -1.5 2
 21 -1 2
 21 -0.5 2
 21 0 2
 21 0.5 2
 21 1 2
 21 1.5 2
 21.5 -1.5 2
 21.5 -1 2
 21.5 -0.5 2
 21.5 0 2
 21.5 0.5 2
 21.5 1 2
 21.5 1.5 2
 22 -1.5 2
 22 -1 2
 22 -0.5 2
 22 0 2
 22 0.5 2
 22 1 2
 22 1.5 2
 22.5 -1.5 2
 22.5 -1 2
 22.5 -0.5 2
 22.5 0 2
 22.5 0.5 2
 22.5 1 2
 22.5 1.5 2
 23 -1.5 2
 23 -1 2
 23 -0.5 2
 23 0 2
 23 0.5 2
 23 1 2
 23 1.5 2
 23.5 -1.5 2
 23.5 -1 2
 23.5 -0.5 2
 23.5 0 2
 23.5 0.5 2
 23.5 1 2
 23.5 1.5 2
 24 -1.5 2
 24 -1 2
 24 -0.5 2
 24 0 2
 24 0.5 2
 24 1 2
 24 1.5 2
 24.5 -1.5 2
 24.5 -1 2
 24.5 -0.5 2
 24.5 0 2
 24.5 0.5 2
 24.5 1 2
 24.5 1.5 2
 25 -1.5 2
 25 -1 2
 25 -0.5 2
 25 0 2
 25 0.5 2
 25 1 2
 25 1.5 2
 25.5 -1.5 2
 25.5 -1 2
 25.5 -0.5 2
 25.5 0 2
 25.5 0.5 2
 25.5 1 2
 25.5 1.5 2
 26 -1.5 2
 26 -1 2
 26 -0.5 2
 26 0 2
 26 0.5 2
 26 1 2
 26 1.5 2
 26.5 -1.5 2
 26.5 -1 2
 26.5 -0.5 2
 26.5 0 2
 26.5 0.5 2
 26.5 1 2
 26.5 1.5 2
 27 -1.5 2
 27 -1 2
 27 -0.5 2
 27 0 2
 27 0.5 2
 27 1 2
 27 1.5 2
 27.5 -1.5 2
 27.5 -1 2
 27.5 -0.5 2
 27.5 0 2
 27.5 0.5 2
 27.5 1 2
 27.5 1.5 2
 28 -1.5 2
 28 -1 2
 28 -0.5 2
 28 0 2
 28 0.5 2
 28 1 2
 28 1.5 2
 28.5 -1.5 2
 28.5 -1 2
 28.5 -0.5 2
 28.5 0 2
 28.5 0.5 2
 28.5 1 2
 28.5 1.5 2
 29 -1.5 2
 29 -1 2
 29 -0.5 2
 29 0 2
 29 0.5 2
 29 1 2
 29 1.5 2
 29.5 -1.5 2
 29.5 -1 2
 29.5 -0.5 2
 29.5 0 2
 29.5 0.5 2
 29.5 1 2
 29.5 1.5 2
 30 -1.5 2
 30 -1 2
 30 -0.5 2
 30 0 2
 30 0.5 2
 30 1 2
 30 1.5 2
 30.5 -1.5 2
 30.5 -1 2
 30.5 -0.5 2
 30.5 0 2
 30.5 0.5 2
 30.5 1 2
 30.5 1.5 2
 31 -1.5 2
 31 -1 2
 31 -0.5 2
 31 0 2
 31 0.5 2
 31 1 2
 31 1.5 2
 31.5 -1.5 2
 31.5 -1 2
 31.5 -0.5 2
 31.5 0 2
 31.5 0.5 2
 31.5 1 2
 31.5 1.5 2
 32 -1.5 2
 32 -1 2
 32 -0.5 2
 32 0 2
 32 0.5 2
 32 1 2
 32 1.5 2
 32.5 -1.5 2
 32.5 -1 2
 32.5 -0.5 2
 32.5 0 2
 32.5 0.5 2
 32.5 1 2
 32.5 1.5 2
 33 -1.5 2
 33 -1 2
 33 -0.5 2
 33 0 2
 33 0.5 2
 33 1 2
 33 1.5 2
 33.5 -1.5 2
 33.5 -1 2
 33.5 -0.5 2
 33.5 0 2
 33.5 0.5 2
 33.5 1 2
 33.5 1.5 2
 34 -1.5 2
 34 -1 2
 34 -0.5 2
 34 0 2
 34 0.5 2
 34 1 2
 34 1.5 2
 34.5 -1.5 2
 34.5 -1 2
 34.5 -0.5 2
 34.5 0 2
 34.5 0.5 2
 34.5 1 2
 34.5 1.5 2
 35 -1.5 2
 35 -1 2
 35 -0.5 2
 35 0 2
 35 0.5 2
 35 1 2
 35 1.5 2
 35.5 -1.5 2
 35.5 -1 2
 35.5 -0.5 2
 35.5 0 2
 35.5 0.5 2
 35.5 1 2
 35.5 1.5 2
 36 -1.5 2
 36 -1 2
 36 -0.5 2
 36 0 2
 36 0.5 2
 36 1 2
 36 1.5 2
 36.5 -1.5 2
 36.5 -1 2
 36.5 -0.5 2
 36.5 0 2
 36.5 0.5 2
 36.5 1 2
 36.5 1.5 2
 37 -1.5 2
 37 -1 2
 37 -0.5 2
 37 0 2
 37 0.5 2
 37 1 2
 37 1.5 2
 37.5 -1.5 2
 37.5 -1 2
 37.5 -0.5 2
 37.5 0 2
 37.5 0.5 2
 37.5 1 2
 37.5 1.5 2
 38 -1.5 2
 38 -1 2
 38 -0.5 2
 38 0 2
 38 0.5 2
 38 1 2
 38 1.5 2
 38.5 -1.5 2
 38.5 -1 2
 38.5 -0.5 2
 38.5 0 2
 38.5 0.5 2
 38.5 1 2
 38.5 1.5 2
 39 -1.5 2
 39 -1 2
 39 -0.5 2
 39 0 2
 39 0.5 2
 39 1 2
 39 1.5 2
 39.5 -1.5 2
 39.5 -1 2
 39.5 -0.5 2
 39.5 0 2
 39.5 0.5 2
 39.5 1 2
 39.5 1.5 2
 40 -1.5 2
 40 -1 2
 40 -0.5 2
 40 0 2
 40 0.5 2
 40 1 2
 40 1.5 2
 40.5 -1.5 2
 40.5 -1 2
 40.5 -0.5 2
 40.5 0 2
 40.5 0.5 2
 40.5 1 2
 40.5 1.5 2
 41 -1.5 2
 41 -1 2
 41 -0.5 2
 41 0 2
 41 0.5 2
 41 1 2
 41 1.5 2
 41.5 -1.5 2
 41.5 -1 2
 41.5 -0.5 2
 41.5 0 2
 41.5 0.5 2
 41.5 1 2
 41.5 1.5 2
 42 -1.5 2
 42 -1 2
 42 -0.5 2
 42 0 2
 42 0.5 2
 42 1 2
 42 1.5 2
 42.5 -1.5 2
 42.5 -1 2
 42.5 -0.5 2
 42.5 0 2
 42.5 0.5 2
 42.5 1 2
 42.5 1.5 2
 43 -1.5 2
 43 -1 2
 43 -0.5 2
 43 0 2
 43 0.5 2
 43 1 2
 43 1.5 2
 43.5 -1.5 2
 43.5 -1 2
 43.5 -0.5 2
 43.5 0 2
 43.5 0.5 2
 43.5 1 2
 43.5 1.5 2
 44 -1.5 2
 44 -1 2
 44 -0.5 2
 44 0 2
 44 0.5 2
 44 1 2
 44 1.5 2
 44.5 -1.5 2
 44.5 -1 2
 44.5 -0.5 2
 44.5 0 2
 44.5 0.5 2
 44.5 1 2
 44.5 1.5 2
 45 -1.5 2
 45 -1 2
 45 -0.5 2
 45 0 2
 45 0.5 2
 45 1 2
 45 1.5 2
 45.5 -1.5 2
 45.5 -1 2
 45.5 -0.5 2
 45.5 0 2
 45.5 0.5 2
 45.5 1 2
 45.5 1.5 2
 46 -1.5 2
 46 -1 2
 46 -0.5 2
 46 0 2
 46 0.5 2
 46 1 2
 46 1.5 2
 46.5 -1.5 2
 46.5 -1 2
 46.5 -0.5 2
 46.5 0 2
 46.5 0.5 2
 46.5 1 2
 46.5 1.5 2
 47 -1.5 2
 47 -1 2
 47 -0.5 2
 47 0 2
 47 0.5 2
 47 1 2
 47 1.5 2
 47.5 -1.5 2
 47.5 -1 2
 47.5 -0.5 2
 47.5 0 2
 47.5 0.5 2
 47.5 1 2
 47.5 1.5 2
 48 -1.5 2
 48 -1 2
 48 -0.5 2
 48 0 2
 48 0.5 2
 48 1 2
 48 1.5 2
 48.5 -1.5 2
 48.5 -1 2
 48.5 -0.5 2
 48.5 0 2
 48.5 0.5 2
 48.5 1 2
 48.5 1.5 2
 49 -1.5 2
 49 -1 2
 49 -0.5 2
 49 0 2
 49 0.5 2
 49 1 2
 49 1.5 2
 49.5 -1.5 2
 49.5 -1 2
 49.5 -0.5 2
 49.5 0 2
 49.5 0.5 2
 49.5 1 2
 49.5 1.5 2
 50 -1.5 2
 50 -1 2
 50 -0.5 2
 50 0 2
 50 0.5 2
 50 1 2
 50 1.5 2

VERTICES 1 708
707
 0 1 2 3 4
 5 6 7 8 9
 10 11 12 13 14
 15 16 17 18 19
 20 21 22 23 24
 25 26 27 28 29
 30 31 32 33 34
 35 36 37 38 39
 40 41 42 43 44
 45 46 47 48 49
 50 51 52 53 54
 55 56 57 58 59
 60 61 62 63 64
 65 66 67 68 69
 70 71 72 73 74
 75 76 77 78 79
 80 81 82 83 84
 85 86 87 88 89
 90 91 92 93 94
 95 96 97 98 99
 100 101 102 103 104
 105 106 107 108 109
 110 111 112 113 114
 115 116 117 118 119
 120 121 122 123 124
 125 126 127 128 129
 130 131 132 133 134
 135 136 137 138 139
 140 141 142 143 144
 145 146 147 148 149
 150 151 152 153 154
 155 156 157 158 159
 160 161 162 163 164
 165 166 167 168 169
 170 171 172 173 174
 175 176 177 178 179
 180 181 182 183 184
 185 186 187 188 189
 190 191 192 193 194
 195 196 197 198 199
 200 201 202 203 204
 205 206 207 208 209
 210 211 212 213 214
 215 216 217 218 219
 220 221 222 223 224
 225 226 227 228 229
 230 231 232 233 234
 235 236 237 238 239
 240 241 242 243 244
 245 246 247 248 249
 250 251 252 253 254
 255 256 257 258 259
 260 261 262 263 264
 265 266 267 268 269
 270 271 272 273 274
 275 276 277 278 279
 280 281 282 283 284
 285 286 287 288 289
 290 291 292 293 294
 295 296 297 298 299
 300 301 302 303 304
 305 306 307 308 309
 310 311 312 313 314
 315 316 317 318 319
 320 321 322 323 324
 325 326 327 328 329
 330 331 332 333 334
 335 336 337 338 339
 340 341 342 343 344
 345 346 347 348 349
 350 351 352 353 354
 355 356 357 358 359
 360 361 362 363 364
 365 366 367 368 369
 370 371 372 373 374
 375 376 377 378 379
 380 381 382 383 384
 385 386 387 388 389
 390 391 392 393 394
 395 396 397 398 399
 400 401 402 403 404
 405 406 407 408 409
 410 411 412 413 414
 415 416 417 418 419
 420 421 422 423 424
 425 426 427 428 429
 430 431 432 433 434
 435 436 437 438 439
 440 441 442 443 444
 445 446 447 448 449
 450 451 452 453 454
 455 456 457 458 459
 460 461 462 463 464
 465 466 467 468 469
 470 471 472 473 474
 475 476 477 478 479
 480 481 482 483 484
 485 486 487 488 489
 490 491 492 493 494
 495 496 497 498 499
 500 501 502 503 504
 505 506 507 508 509
 510 511 512 513 514
 515 516 517 518 519
 520 521 522 523 524
 525 526 527 528 529
 530 531 532 533 534
 535 536 537 538 539
 540 541 542 543 544
 545 546 547 548 549
 550 551 552 553 554
 555 556 557 558 559
 560 561 562 563 564
 565 566 567 568 569
 570 571 572 573 574
 575 576 577 578 579
 580 581 582 583 584
 585 586 587 588 589
 590 591 592 593 594
 595 596 597 598 599
 600 601 602 603 604
 605 606 607 608 609
 610 611 612 613 614
 615 616 617 618 619
 620 621 622 623 624
 625 626 627 628 629
 630 631 632 633 634
 635 636 637 638 639
 640 641 642 643 644
 645 646 647 648 649
 650 651 652 653 654
 655 656 657 658 659
 660 661 662 663 664
 665 666 667 668 669
 670 671 672 673 674
 675 676 677 678 679
 680 681 682 683 684
 685 686 687 688 689
 690 691 692 693 694
 695 696 697 698 699
 700 701 702 703 704
 705 706

POINT_DATA 707
FIELD FieldData 3
ReceiverID 1 707 int
 0
 1
 2
 3
 4
 5
 6
 7
 8
 9
 10
 11
 12
 13
 14
 15
 16
 17
 18
 19
 20
 21
 22
 23
 24
 25
 26
 27
 28
 29
 30
 31
 32
 33
 34
 35
 36
 37
 38
 39
 40
 41
 42
 43
 44
 45
 46
 47
 48
 49
 50
 51
 52
 53
 54
 55
 56
 57
 58
 59
 60
 61
 62
 63
 64
 65
 66
 67
 68
 69
 70
 71
 72
 73
 74
 75
 76
 77
 78
 79
 80
 81
 82
 83
 84
 85
 86
 87
 88
 89
 90
 91
 92
 93
 94
 95
 96
 97
 98
 99
 100
 101
 102
 103
 104
 105
 106
 107
 108
 109
 110
 111
 112
 113
 114
 115
 116
 117
 118
 119
 120
 121
 122
 123
 124
 125
 126
 127
 128
 129
 130
 131
 132
 133
 134
 135
 136
 137
 138
 139
 140
 141
 142
 143
 144
 145
 146
 147
 148
 149
 150
 151
 152
 153
 154
 155
 156
 157
 158
 159
 160
 161
 162
 163
 164
 165
 166
 167
 168
 169
 170
 171
 172
 173
 174
 175
 176
 177
 178
 179
 180
 181
 182
 183
 184
 185
 186
 187
 188
 189
 190
 191
 192
 193
 194
 195
 196
 197
 198
 199
 200
 201
 202
 203
 204
 205
 206
 207
 208
 209
 210
 211
 212
 213
 214
 215
 216
 217
 218
 219
 220
 221
 222
 223
 224
 225
 226
 227
 228
 229
 230
 231
 232
 233
 234
 235
 236
 237
 238
 239
 240
 241
 242
 243
 244
 245
 246
 247
 248
 249
 250
 251
 252
 253
 254
 255
 256
 257
 258
 259
 260
 261
 262
 263
 264
 265
 266
 267
 268
 269
 270
 271
 272
 273
 274
 275
 276
 277
 278
 279
 280
 281
 282
 283
 284
 285
 286
 287
 288
 289
 290
 291
 292
 293
 294
 295
 296
 297
 298
 299
 300
 301
 302
 303
 304
 305
 306
 307
 308
 309
 310
 311
 312
 313
 314
 315
 316
 317
 318
 319
 320
 321
 322
 323
 324
 325
 326
 327
 328
 329
 330
 331
 332
 333
 334
 335
 336
 337
 338
 339
 340
 341
 342
 343
 344
 345
 346
 347
 348
 349
 350
 351
 352
 353
 354
 355
 356
 357
 358
 359
 360
 361
 362
 363
 364
 365
 366
 367
 368
 369
 370
 371
 372
 373
 374
 375
 376
 377
 378
 379
 380
 381
 382
 383
 384
 385
 386
 387
 388
 389
 390
 391
 392
 393
 394
 395
 396
 397
 398
 399
 400
 401
 402
 403
 404
 405
 406
 407
 408
 409
 410
 411
 412
 413
 414
 415
 416
 417
 418
 419
 420
 421
 422
 423
 424
 425
 426
 427
 428
 429
 430
 431
 432
 433
 434
 435
 436
 437
 438
 439
 440
 441
 442
 443
 444
 445
 446
 447
 448
 449
 450
 451
 452
 453
 454
 455
 456
 457
 458
 459
 460
 461
 462
 463
 464
 465
 466
 467
 468
 469
 470
 471
 472
 473
 474
 475
 476
 477
 478
 479
 480
 481
 482
 483
 484
 485
 486
 487
 488
 489
 490
 491
 492
 493
 494
 495
 496
 497
 498
 499
 500
 501
 502
 503
 504
 505
 506
 507
 508
 509
 510
 511
 512
 513
 514
 515
 516
 517
 518
 519
 520
 521
 522
 523
 524
 525
 526
 527
 528
 529
 530
 531
 532
 533
 534
 535
 536
 537
 538
 539
 540
 541
 542
 543
 544
 545
 546
 547
 548
 549
 550
 551
 552
 553
 554
 555
 556
 557
 558
 559
 560
 561
 562
 563
 564
 565
 566
 567
 568
 569
 570
 571
 572
 573
 574
 575
 576
 577
 578
 579
 580
 581
 582
 583
 584
 585
 586
 587
 588
 589
 590
 591
 592
 593
 594
 595
 596
 597
 598
 599
 600
 601
 602
 603
 604
 605
 606
 607
 608
 609
 610
 611
 612
 613
 614
 615
 616
 617
 618
 619
 620
 621
 622
 623
 624
 625
 626
 627
 628
 629
 630
 631
 632
 633
 634
 635
 636
 637
 638
 639
 640
 641
 642
 643
 644
 645
 646
 647
 648
 649
 650
 651
 652
 653
 654
 655
 656
 657
 658
 659
 660
 661
 662
 663
 664
 665
 666
 667
 668
 669
 670
 671
 672
 673
 674
 675
 676
 677
 678
 679
 680
 681
 682
 683
 684
 685
 686
 687
 688
 689
 690
 691
 692
 693
 694
 695
 696
 697
 698
 699
 700
 701
 702
 703
 704
 705
 706
PowerdBm 1 707 float
 -43.9348
 -29.7474
 -24.8442
 -34.9211
 -33.7338
 -34.6679
 -35.5514
 nan
 -20.2687
 -22.5817
 -14.5598
 -12.7134
 -17.7817
 -22.7298
 nan
 -18.1208
 -20.9987
 -14.4889
 -20.9024
 -12.7773
 nan
 nan
 -21.8769
 -18.4483
 -15.0361
 -21.2662
 -24.8518
 nan
 nan
 -25.7663
 -21.9641
 -22.9732
 -18.0553
 -22.7895
 nan
 nan
 -20.6482
 -20.5539
 -16.4959
 -24.9212
 -21.5623
 nan
 -38.9465
 -20.2674
 -22.0678
 -18.1028
 -20.5349
 -19.5452
 nan
 nan
 -20.982
 -24.7062
 -19.1197
 -20.1769
 -20.2229
 -32.793
 nan
 -27.6362
 -20.9235
 -26.1817
 -39.5859
 -41.0152
 nan
 nan
 -29.6059
 -28.498
 -20.532
 -21.1915
 -28.9356
 nan
 -29.579
 -20.4984
 -24.5072
 -24.576
 -22.1766
 -21.9874
 nan
 nan
 -33.7326
 -23.3412
 -24.9514
 -32.248
 -24.4796
 nan
 -29.5227
 -22.0129
 -22.6947
 -34.6735
 -24.6132
 -25.023
 nan
 nan
 -45.268
 -33.7226
 -24.9875
 -26.1654
 -24.0221
 -39.4427
 nan
 -23.1469
 -30.2888
 -22.5949
 -23.5577
 -26.9566
 -35.1706
 nan
 -24.5482
 -23.1532
 -23.9545
 -25.0436
 -29.5493
 nan
 nan
 -43.5852
 -45.6568
 -32.3302
 -29.5252
 -44.8017
 nan
 nan
 -26.3376
 -33.8264
 -34.0178
 -35.7013
 -35.1718
 nan
 nan
 -23.8526
 -27.2802
 -35.8724
 -31.756
 -33.1415
 -36.6262
 nan
 -27.0614
 -24.617
 -25.0663
 -27.1192
 -31.7362
 nan
 nan
 -36.5804
 -31.9458
 -30.3062
 -27.4531
 -28.6237
 nan
 -35.3725
 -34.0684
 -32.7386
 -24.9847
 -30.3842
 -29.293
 nan
 -33.5046
 -27.1571
 -33.8516
 -35.6469
 -25.2535
 -32.6299
 -38.9703
 nan
 -25.5468
 -41.9777
 -28.8315
 -30.5842
 -31.0775
 nan
 nan
 -26.4999
 -30.2425
 -32.9147
 -25.9764
 -27.5435
 nan
 -38.224
 -28.9258
 -27.3964
 -36.4259
 -35.186
 -32.8439
 -37.0344
 nan
 -30.7421
 -28.3307
 -35.0318
 -26.7614
 -26.7628
 -35.9782
 -38.2976
 -35.6272
 -34.3131
 -41.0056
 -34.3067
 -31.8839
 nan
 -36.5967
 -37.3449
 -33.2957
 -30.4954
 -32.2163
 -28.5584
 nan
 -37.0437
 -32.6495
 -30.3008
 -30.7829
 -32.6345
 -32.3077
 nan
 nan
 -29.3987
 -29.3329
 -34.812
 -48.5401
 -27.0467
 nan
 nan
 -28.762
 -29.733
 -32.0136
 -32.6022
 -31.8728
 -36.4011
 nan
 -29.7511
 -32.4931
 -29.8596
 -32.9485
 -29.6854
 nan
 nan
 -29.5261
 -36.2084
 -30.0097
 -36.4886
 -31.3355
 nan
 -39.1897
 -28.3679
 -35.1275
 -31.6186
 -35.8177
 -34.1779
 nan
 -41.6567
 -28.3395
 -33.7991
 -33.9727
 -37.977
 -28.0663
 nan
 nan
 -29.5705
 -33.8218
 -33.5976
 -45.1853
 -28.8869
 nan
 nan
 -31.2625
 -34.2622
 -30.9578
 -37.6323
 -35.0836
 nan
 nan
 -32.6241
 -35.4843
 -29.6324
 -35.3131
 -31.7121
 nan
 nan
 -33.931
 -39.271
 -30.2322
 -38.4027
 -29.4393
 -41.2453
 -44.6316
 -35.7221
 -48.7931
 -33.116
 -50.4384
 -32.4801
 nan
 nan
 -37.4652
 -38.9179
 -40.283
 -36.4532
 -43.0074
 -36.295
 nan
 -37.9934
 -33.4536
 -48.2516
 -31.7013
 -33.2759
 nan
 -37.3891
 -37.9608
 -30.9693
 -37.0152
 -30.244
 -29.4299
 nan
 nan
 -38.6471
 -30.0472
 -33.6752
 -30.9319
 -29.2893
 -42.6498
 nan
 -40.0087
 -30.1452
 -32.7073
 -33.8956
 -31.7505
 -57.2085
 -35.8792
 -39.9212
 -30.9081
 -33.1066
 -41.3167
 -36.166
 -47.4313
 -36.6616
 -37.4495
 -31.9544
 -34.4871
 -47.9484
 -36.8081
 nan
 -37.8657
 -34.9168
 -32.8598
 -36.5453
 -36.8399
 -34.2533
 nan
 nan
 -33.197
 -33.4103
 -38.7142
 -33.3532
 -33.6031
 nan
 -40.8936
 -32.2422
 -33.798
 -40.0184
 -32.2229
 -35.1162
 nan
 -41.9877
 -31.8712
 -34.3869
 -40.0797
 -32.5931
 -38.8988
 -40.2311
 -42.1733
 -31.8844
 -35.4715
 -39.6195
 -34.3152
 -42.1427
 nan
 -41.5646
 -32.0564
 -37.2859
 -39.2279
 -37.5
 -38.4243
 -43.6931
 nan
 -32.1587
 -40.1507
 -39.0546
 -40.9813
 -35.3101
 nan
 nan
 -32.0455
 -44.7946
 -39.1015
 -39.1294
 -33.9742
 nan
 nan
 -31.7308
 -53.0988
 -39.3855
 -35.4797
 -33.9491
 -39.893
 nan
 -31.3459
 -51.2533
 -39.9835
 -33.0466
 -34.9605
 -38.765
 nan
 -31.0325
 -45.4641
 -41.0398
 -31.6553
 -36.7102
 -38.2597
 -43.5103
 -30.886
 -42.7349
 -42.8001
 -31.0428
 -38.307
 -38.3248
 nan
 -30.9564
 -41.4953
 -45.7631
 -31.0688
 -38.2327
 -38.9288
 -42.689
 -31.266
 -41.2079
 -51.3332
 -31.6821
 -36.8052
 nan
 nan
 -31.8251
 -41.6776
 -58.4425
 -32.9085
 -35.4421
 nan
 nan
 -32.6409
 -42.8705
 -48.743
 -34.8772
 -34.6761
 -44.5416
 nan
 -33.7228
 -44.8941
 -43.5074
 -37.9368
 -34.5804
 -48.6053
 nan
 -35.0856
 -48.104
 -40.3133
 -43.1715
 -35.1633
 -54.9718
 -42.7184
 -36.7498
 -53.6315
 -38.1388
 -58.5168
 -36.4857
 nan
 -42.76
 -38.7345
 -65.4801
 -36.5999
 -47.1451
 -38.7343
 nan
 nan
 -41.0263
 -55.7539
 -35.5122
 -40.5067
 -42.3766
 -45.1033
 -42.8567
 -43.4666
 -50.2412
 -34.7737
 -37.1926
 -48.2519
 nan
 -42.9493
 -45.4926
 -47.4196
 -34.3222
 -35.1784
 -49.0587
 nan
 -43.0964
 -46.2134
 -45.8228
 -34.1188
 -33.8984
 -43.3024
 -40.2215
 nan
 -45.6263
 -44.983
 -34.1384
 -33.1127
 -39.7243
 nan
 -40.7028
 -44.6124
 -44.7055
 -34.3665
 -32.6987
 -37.5284
 nan
 -40.3255
 -43.7212
 -44.9079
 -34.7962
 -32.5869
 -36.1598
 nan
 -40.1159
 -43.0975
 -45.5743
 -35.4283
 -32.737
 -35.3602
 -44.8657
 -40.0484
 -42.7399
 -46.7488
 -36.27
 -33.1266
 -34.9968
 nan
 -40.1041
 -42.6113
 -48.5605
 -37.3361
 -33.7462
 -34.9981
 nan
 nan
 -42.6702
 -51.3102
 -38.6471
 -34.5973
 -35.328
 nan
 nan
 -42.8763
 -55.7374
 -40.2238
 -35.6906
 -35.9757
 -41.0214
 nan
 -43.1907
 -62.503
 -42.0596
 -37.045
 -36.9538
 nan
 nan
 -43.5742
 -58.1855
 -44.0296
 -38.6815
 -38.3032
 nan
 -50.3627
 -43.9886
 -52.5131
 -45.6579
 -40.5934
 -40.1066
 nan
 -50.4362
 -44.3979
 -49.0088
 -46.0918
 -42.6474
 -42.522
 -45.2783
 nan
 -44.7717
 -46.6008
 -45.1429
 -44.3345
 -45.8476
 -46.3577
 nan
 -45.0904
 -44.8345
 -43.6077
 -44.7559
 -50.4669
 -47.1589
 nan
 -45.3478
 -43.4938
 -42.0997
 -43.7753
 -53.5468
 -47.5126
 nan
 -45.5503
 -42.4603
 -40.8121
 -42.2535
 -49.7245
 nan
 nan
 -45.7129
 -41.6618
 -39.7642
 -40.7964
 -45.9852
 -66.3794
 nan
 -45.8536
 -41.0506
 -38.9309
 -39.5795
 -43.4484
 nan
 -60.9373
 -45.9875
 -40.5937
 -38.2814
 -38.6137
 -41.6896
 nan
 -58.5832
 -46.1234
 -40.2664
 -37.7887
 -37.8708
 -40.4431
 -60.1868
 nan
 -46.2611
 -40.0498
 -37.4312
 -37.3191
 -39.5605
 nan
 -55.3051
 -46.3906
 -39.9285
 -37.1921
 -36.9322
 -38.954
 -56.0896
 nan
 -46.492
 -39.8893
 -37.0581
 -36.6892
 -38.5681
 nan
 nan
 -46.5375
 -39.9204
 -37.0189
 -36.5746
 -38.3659
 nan
 -44.5071
 -46.4957
 -40.0101
 -37.0668
 -36.5769
 -38.3223
 nan
 -44.0879
 -46.3395
 -40.1468
 -37.1956
 -36.688
 -38.4197
 -51.5835
 nan
 -46.054
 -40.3182
 -37.4007
 -36.9028
 -38.6459
 nan
 nan
 -45.6416
 -40.5107
 -37.6788
 -37.2187
 -38.9924
 nan
 nan
 -45.1213
 -40.7098
 -38.0277
 -37.6355
 -39.4536
 nan
Phase 1 707 float
 111.544
 -25.2775
 -85.9027
 -2.23859
 54.2525
 -51.0469
 -159.465
 nan
 -50.3664
 -174.472
 -61.6532
 -92.5665
 97.5611
 -170.79
 nan
 13.2637
 -2.70987
 81.1494
 -81.7122
 173.38
 nan
 nan
 -84.7597
 -38.0109
 0.278916
 163.745
 -96.2405
 nan
 nan
 101.22
 -114.635
 -35.5583
 -36.9395
 -118.83
 nan
 nan
 37.3913
 -41.9898
 -167.473
 -23.4624
 -86.7351
 nan
 -175.51
 164.398
 -121.933
 -61.0485
 -40.4315
 113.451
 nan
 nan
 141.658
 62.6499
 -52.9694
 -156.926
 101.185
 -124.975
 nan
 18.2384
 -176.615
 -30.1695
 -149.963
 -14.7035
 nan
 nan
 -60.6994
 170.502
 -27.5594
 60.6336
 154.852
 nan
 171.269
 10.6124
 -83.8699
 -130.315
 24.8787
 112.078
 nan
 nan
 15.3874
 -118.313
 -132.7
 -43.1523
 22.6247
 nan
 152.305
 157.934
 -101.565
 126.839
 114.261
 -62.3102
 nan
 nan
 -36.0083
 148.668
 37.8888
 29.88
 -158.672
 168.331
 nan
 153.139
 158.867
 -15.9974
 -54.5716
 72.6236
 7.71537
 nan
 -149.1
 148.987
 -82.9171
 -128.798
 17.4648
 nan
 nan
 -41.2023
 35.9627
 169.041
 144.222
 62.4134
 nan
 nan
 68.2182
 6.83063
 -33.845
 18.994
 20.2055
 nan
 nan
 75.7723
 -128.951
 -52.7126
 -161.881
 -92.7567
 -143.073
 nan
 74.3582
 -145.889
 -147.826
 66.5061
 147.415
 nan
 nan
 72.3747
 163.687
 115.862
 -62.3671
 12.3003
 nan
 -57.4902
 160.062
 45.3907
 45.4101
 -121.187
 -119.604
 nan
 -41.6884
 143.976
 -7.30133
 -38.8705
 112.381
 107.708
 151.018
 nan
 107.789
 70.6525
 -161.682
 -1.90081
 53.0446
 nan
 nan
 63.4738
 50.5322
 167.613
 -86.8003
 -86.3396
 nan
 12.8079
 3.7855
 -9.34143
 -122.347
 134.871
 128.101
 -55.3734
 nan
 -50.7793
 -72.3391
 -140.46
 40.8317
 55.9114
 36.3394
 -42.6159
 -79.095
 -162.023
 -54.2743
 -31.3377
 -90.7231
 nan
 -75.1906
 -77.5066
 61.9054
 -86.9908
 159.271
 -176.351
 nan
 -119.738
 -119.978
 -28.6868
 -156.704
 98.8674
 28.999
 nan
 nan
 179.912
 -111.156
 90.0294
 -153.131
 -63.4678
 nan
 nan
 113.135
 176.219
 -38.385
 167.175
 -167.356
 122.064
 nan
 31.3934
 118.095
 -136.626
 122.748
 55.8523
 nan
 nan
 -62.3872
 86.5848
 126.667
 106.344
 -38.1329
 nan
 46.6608
 -148.553
 55.2264
 24.1145
 89.1388
 159.232
 nan
 -17.3808
 131.116
 -11.2534
 -92.4563
 45.7007
 52.135
 nan
 nan
 48.6165
 -97.4718
 137.566
 48.9765
 -34.9207
 nan
 nan
 -39.1969
 167.704
 25.971
 41.4074
 -155.972
 nan
 nan
 -127.856
 72.4931
 -70.1496
 -23.5077
 52.9522
 nan
 nan
 150.247
 -24.771
 -160.337
 -93.8298
 -43.1898
 -88.4765
 -32.9311
 78.6837
 -175.562
 112.213
 -86.5567
 -135.096
 nan
 nan
 17.8581
 16.1062
 29.7817
 -101.977
 75.0081
 -136.48
 nan
 -40.9212
 -82.1131
 82.2567
 177.515
 -90.7546
 nan
 44.3647
 -110.884
 -175.891
 13.5397
 91.2925
 173.188
 nan
 nan
 164.378
 89.3786
 -73.7855
 2.08793
 78.9015
 79.9885
 nan
 62.148
 -8.03867
 -163.083
 -89.8534
 -21.703
 37.2403
 -176.576
 -56.9865
 -109.328
 107.339
 172.686
 -142.807
 134.928
 106.731
 -172.414
 144.844
 18.7551
 -74.7066
 69.6564
 nan
 26.8903
 82.8962
 35.3095
 -67.0115
 176.159
 -52.4117
 nan
 nan
 -17.3024
 -75.1735
 -147.955
 77.0026
 -159.665
 nan
 -147.352
 -116.924
 176.028
 134.391
 -22.8686
 93.7745
 nan
 116.479
 142.147
 69.5799
 52.4622
 -124.862
 -23.297
 -171.663
 17.0172
 38.8936
 -35.2095
 -38.2837
 129.195
 -175.435
 nan
 -81.1921
 -67.0854
 -139.429
 -136.445
 14.1055
 39.7167
 80.7146
 nan
 -175.398
 115.525
 120.509
 -125.354
 -75.9567
 nan
 nan
 75.1835
 6.34197
 14.5896
 83.715
 175.533
 nan
 nan
 -33.9018
 -128.16
 -92.7359
 -40.3719
 67.5315
 -90.739
 nan
 -141.808
 36.5289
 159.547
 -152.375
 -43.1784
 -166.084
 nan
 111.566
 -85.7221
 52.1114
 99.4165
 -160.162
 114.303
 131.389
 5.91501
 165.955
 -54.4432
 -7.50949
 72.8702
 31.7795
 nan
 -99.1617
 60.3391
 -158.874
 -114.072
 -59.2295
 -53.0037
 -44.5464
 155.973
 -44.5083
 104.926
 139.328
 176.021
 nan
 nan
 51.0167
 -149.134
 82.4512
 32.4835
 60.0175
 nan
 nan
 -54.2961
 106.328
 26.2226
 -74.7422
 -50.9484
 39.4143
 nan
 -160.228
 2.01337
 -73.9553
 177.485
 -159.263
 -58.4632
 nan
 92.9092
 -101.426
 -179.578
 68.6419
 93.9995
 -179.404
 -129.556
 -15.3303
 159.158
 73.0249
 -51.3114
 -11.4357
 nan
 139.425
 -125.666
 110.678
 -35.3052
 38.1726
 -115.028
 nan
 nan
 120.662
 93.7176
 -144.287
 -72.7951
 145.868
 153.023
 -45.9555
 1.65602
 -4.82429
 106.193
 177.307
 65.1586
 nan
 -140.421
 -124.454
 -109.654
 -3.8216
 67.3167
 32.3653
 nan
 123.956
 105.311
 143.741
 -114.318
 -42.9648
 -44.5813
 -137.3
 nan
 -21.1886
 36.2721
 134.694
 -153.605
 -143.72
 nan
 -28.9328
 -140.986
 -71.7299
 23.186
 95.357
 111.744
 nan
 -131.306
 104.17
 179.921
 -88.8932
 -16.1124
 5.06157
 nan
 125.648
 -7.67122
 71.3927
 158.373
 -128.055
 -102.805
 -157.203
 21.9415
 -117.687
 -37.0832
 44.8517
 119.471
 148.516
 nan
 -82.4247
 133.486
 -145.056
 -69.6735
 6.3779
 39.1849
 nan
 nan
 25.506
 108.637
 174.435
 -107.47
 -70.7354
 nan
 nan
 -81.814
 8.3789
 56.5497
 137.708
 178.757
 160.012
 nan
 171.414
 -57.7915
 -64.4382
 21.5399
 67.6001
 nan
 nan
 65.1082
 -95.135
 169.654
 -96.6181
 -44.3537
 nan
 178.184
 -40.8464
 170.62
 36.9646
 142.075
 -157.447
 nan
 81.1582
 -146.6
 64.2563
 -100.562
 15.7017
 87.5185
 133.795
 nan
 107.639
 -45.4979
 124.403
 -117.68
 -31.7019
 40.9419
 nan
 1.61385
 -156.783
 -4.24623
 104.197
 -163.183
 -50.1935
 nan
 -104.953
 91.0133
 -127.807
 -30.8824
 32.2203
 -140.639
 nan
 147.68
 -21.8544
 111.72
 -159.256
 -122.981
 nan
 nan
 39.3052
 -135.263
 -6.97307
 77.5073
 109.708
 -177.268
 nan
 -70.2281
 110.849
 -124.633
 -42.6493
 -9.09848
 nan
 -158.216
 178.984
 -3.48511
 118.309
 -161.018
 -125.01
 nan
 87.3985
 66.8856
 -118.252
 1.59528
 81.6751
 120.303
 127.213
 nan
 -46.5546
 126.551
 -114.937
 -34.9838
 6.2067
 nan
 -132.877
 -161.342
 10.9171
 128.607
 -151.238
 -107.583
 -104.135
 nan
 82.5538
 -105.165
 12.1516
 92.7641
 138.796
 nan
 nan
 -34.7829
 138.288
 -104.356
 -23.0715
 25.276
 nan
 -47.6242
 -153.188
 21.2565
 139.044
 -138.804
 -88.1755
 nan
 -161.598
 87.5909
 -96.2803
 22.3161
 105.53
 158.435
 164.726
 nan
 -32.1271
 145.659
 -94.5689
 -10.0928
 45.1174
 nan
 nan
 -152.008
 27.0621
 148.36
 -125.681
 -68.1027
 nan
 nan
 88.2345
 -92.0733
 31.0732
 118.764
 178.816
 nan
