# vtk DataFile Version 2.0
receivers generated by ray-launching solver
ASCII
DATASET POLYDATA

POINTS 99 float
 1 1 1.5
 1.5 1 1.5
 2 1 1.5
 2.5 1 1.5
 3 1 1.5
 3.5 1 1.5
 4 1 1.5
 4.5 1 1.5
 5 1 1.5
 5.5 1 1.5
 6 1 1.5
 6.5 1 1.5
 7 1 1.5
 7.5 1 1.5
 8 1 1.5
 8.5 1 1.5
 9 1 1.5
 9.5 1 1.5
 10 1 1.5
 10.5 1 1.5
 11 1 1.5
 11.5 1 1.5
 12 1 1.5
 12.5 1 1.5
 13 1 1.5
 13.5 1 1.5
 14 1 1.5
 14.5 1 1.5
 15 1 1.5
 15.5 1 1.5
 16 1 1.5
 16.5 1 1.5
 17 1 1.5
 17.5 1 1.5
 18 1 1.5
 18.5 1 1.5
 19 1 1.5
 19.5 1 1.5
 20 1 1.5
 20.5 1 1.5
 21 1 1.5
 21.5 1 1.5
 22 1 1.5
 22.5 1 1.5
 23 1 1.5
 23.5 1 1.5
 24 1 1.5
 24.5 1 1.5
 25 1 1.5
 25.5 1 1.5
 26 1 1.5
 26.5 1 1.5
 27 1 1.5
 27.5 1 1.5
 28 1 1.5
 28.5 1 1.5
 29 1 1.5
 29.5 1 1.5
 30 1 1.5
 30.5 1 1.5
 31 1 1.5
 31.5 1 1.5
 32 1 1.5
 32.5 1 1.5
 33 1 1.5
 33.5 1 1.5
 34 1 1.5
 34.5 1 1.5
 35 1 1.5
 35.5 1 1.5
 36 1 1.5
 36.5 1 1.5
 37 1 1.5
 37.5 1 1.5
 38 1 1.5
 38.5 1 1.5
 39 1 1.5
 39.5 1 1.5
 40 1 1.5
 40.5 1 1.5
 41 1 1.5
 41.5 1 1.5
 42 1 1.5
 42.5 1 1.5
 43 1 1.5
 43.5 1 1.5
 44 1 1.5
 44.5 1 1.5
 45 1 1.5
 45.5 1 1.5
 46 1 1.5
 46.5 1 1.5
 47 1 1.5
 47.5 1 1.5
 48 1 1.5
 48.5 1 1.5
 49 1 1.5
 49.5 1 1.5
 50 1 1.5

VERTICES 1 100
99
 0 1 2 3 4
 5 6 7 8 9
 10 11 12 13 14
 15 16 17 18 19
 20 21 22 23 24
 25 26 27 28 29
 30 31 32 33 34
 35 36 37 38 39
 40 41 42 43 44
 45 46 47 48 49
 50 51 52 53 54
 55 56 57 58 59
 60 61 62 63 64
 65 66 67 68 69
 70 71 72 73 74
 75 76 77 78 79
 80 81 82 83 84
 85 86 87 88 89
 90 91 92 93 94
 95 96 97 98

POINT_DATA 99
FIELD FieldData 3
ReceiverID 1 99 int
 0
 1
 2
 3
 4
 5
 6
 7
 8
 9
 10
 11
 12
 13
 14
 15
 16
 17
 18
 19
 20
 21
 22
 23
 24
 25
 26
 27
 28
 29
 30
 31
 32
 33
 34
 35
 36
 37
 38
 39
 40
 41
 42
 43
 44
 45
 46
 47
 48
 49
 50
 51
 52
 53
 54
 55
 56
 57
 58
 59
 60
 61
 62
 63
 64
 65
 66
 67
 68
 69
 70
 71
 72
 73
 74
 75
 76
 77
 78
 79
 80
 81
 82
 83
 84
 85
 86
 87
 88
 89
 90
 91
 92
 93
 94
 95
 96
 97
 98
PowerdBm 1 99 float
 -14.3895
 -17.5345
 -22.2382
 -16.9969
 -22.3601
 -18.1604
 -29.9945
 -29.7024
 -21.2229
 -22.7515
 -23.6391
 -23.3385
 -27.6247
 -29.579
 -49.5749
 -34.5931
 -34.4818
 -30.4195
 -29.3273
 -29.3445
 -32.1835
 -30.2682
 -27.8655
 -33.8565
 -26.9161
 -30.1311
 -27.313
 -34.9294
 -28.1309
 -35.0878
 -27.5233
 -27.686
 -34.0462
 -29.0052
 -29.305
 -39.0394
 -33.2307
 -29.5184
 -31.8291
 -37.4442
 -31.68
 -28.6059
 -28.9046
 -32.2596
 -39.1052
 -36.5864
 -32.6059
 -31.8438
 -33.6272
 -39.014
 -66.2417
 -38.8494
 -34.1562
 -32.4455
 -32.3984
 -33.7528
 -36.7055
 -41.6281
 -42.7724
 -37.9191
 -34.7094
 -32.9357
 -32.1215
 -32.0386
 -32.593
 -33.781
 -35.6968
 -38.6129
 -43.3204
 -53.6736
 -52.2454
 -44.1792
 -40.738
 -38.8923
 -37.9319
 -37.5852
 -37.7304
 -38.317
 -39.3373
 -40.8113
 -42.7507
 -44.9927
 -46.6542
 -46.254
 -44.3223
 -42.2841
 -40.6067
 -39.3143
 -38.3499
 -37.6578
 -37.1951
 -36.9312
 -36.8447
 -36.9214
 -37.1532
 -37.5373
 -38.0764
 -38.7789
 -39.6613
Phase 1 99 float
 -167.787
 84.8746
 -47.3183
 -162.954
 17.3496
 -51.002
 -118.795
 -27.022
 -100.998
 161.458
 60.4458
 -46.0314
 178.031
 105.919
 100.596
 105.558
 -9.70612
 -143.698
 91.7427
 -57.9984
 -178.423
 123.597
 -26.4067
 -172.09
 107.751
 -35.3975
 -115.4
 86.7369
 -12.9496
 -134.916
 86.3527
 4.90855
 -125.464
 101.694
 15.3577
 -94.9673
 71.7529
 -20.3206
 -115.154
 100.782
 -43.7687
 -142.679
 123.28
 24.2289
 -106.13
 86.7337
 -23.955
 -122.631
 140.843
 44.2262
 147.456
 31.6586
 -67.1312
 -166.879
 91.8319
 -11.9808
 -121.239
 111.709
 -54.937
 169.325
 55.7436
 -52.3965
 -158.886
 95.1168
 -10.8481
 -117.012
 136.457
 29.3193
 -79.1817
 163.749
 -96.7071
 148.427
 39.2275
 -69.1714
 -177.317
 74.72
 -32.9733
 -140.176
 113.53
 8.94879
 -92.3142
 172.852
 87.8596
 6.72088
 -83.1022
 177.855
 73.4534
 -33.9054
 -143.023
 106.717
 -4.34754
 -116.017
 131.832
 19.2786
 -93.6237
 153.159
 39.6472
 -74.1509
 171.759
