# vtk DataFile Version 2.0
receivers generated by ray-launching solver
ASCII
DATASET POLYDATA

POINTS 707 float
 0 -1.5 2
 0 -1 2
 0 -0.5 2
 0 0 2
 0 0.5 2
 0 1 2
 0 1.5 2
 0.5 -1.5 2
 0.5 -1 2
 0.5 -0.5 2
 0.5 0 2
 0.5 0.5 2
 0.5 1 2
 0.5 1.5 2
 1 -1.5 2
 1 -1 2
 1 -0.5 2
 1 0 2
 1 0.5 2
 1 1 2
 1 1.5 2
 1.5 -1.5 2
 1.5 -1 2
 1.5 -0.5 2
 1.5 0 2
 1.5 0.5 2
 1.5 1 2
 1.5 1.5 2
 2 -1.5 2
 2 -1 2
 2 -0.5 2
 2 0 2
 2 0.5 2
 2 1 2
 2 1.5 2
 2.5 -1.5 2
 2.5 -1 2
 2.5 -0.5 2
 2.5 0 2
 2.5 0.5 2
 2.5 1 2
 2.5 1.5 2
 3 -1.5 2
 3 -1 2
 3 -0.5 2
 3 0 2
 3 0.5 2
 3 1 2
 3 1.5 2
 3.5 -1.5 2
 3.5 -1 2
 3.5 -0.5 2
 3.5 0 2
 3.5 0.5 2
 3.5 1 2
 3.5 1.5 2
 4 -1.5 2
 4 -1 2
 4 -0.5 2
 4 0 2
 4 0.5 2
 4 1 2
 4 1.5 2
 4.5 -1.5 2
 4.5 -1 2
 4.5 -0.5 2
 4.5 0 2
 4.5 0.5 2
 4.5 1 2
 4.5 1.5 2
 5 -1.5 2
 5 -1 2
 5 -0.5 2
 5 0 2
 5 0.5 2
 5 1 2
 5 1.5 2
 5.5 -1.5 2
 5.5 -1 2
 5.5 -0.5 2
 5.5 0 2
 5.5 0.5 2
 5.5 1 2
 5.5 1.5 2
 6 -1.5 2
 6 -1 2
 6 -0.5 2
 6 0 2
 6 0.5 2
 6 1 2
 6 1.5 2
 6.5 -1.5 2
 6.5 -1 2
 6.5 -0.5 2
 6.5 0 2
 6.5 0.5 2
 6.5 1 2
 6.5 1.5 2
 7 -1.5 2
 7 -1 2
 7 -0.5 2
 7 0 2
 7 0.5 2
 7 1 2
 7 1.5 2
 7.5 -1.5 2
 7.5 -1 2
 7.5 -0.5 2
 7.5 0 2
 7.5 0.5 2
 7.5 1 2
 7.5 1.5 2
 8 -1.5 2
 8 -1 2
 8 -0.5 2
 8 0 2
 8 0.5 2
 8 1 2
 8 1.5 2
 8.5 -1.5 2
 8.5 -1 2
 8.5 -0.5 2
 8.5 0 2
 8.5 0.5 2
 8.5 1 2
 8.5 1.5 2
 9 -1.5 2
 9 -1 2
 9 -0.5 2
 9 0 2
 9 0.5 2
 9 1 2
 9 1.5 2
 9.5 -1.5 2
 9.5 -1 2
 9.5 -0.5 2
 9.5 0 2
 9.5 0.5 2
 9.5 1 2
 9.5 1.5 2
 10 -1.5 2
 10 -1 2
 10 -0.5 2
 10 0 2
 10 0.5 2
 10 1 2
 10 1.5 2
 10.5 -1.5 2
 10.5 -1 2
 10.5 -0.5 2
 10.5 0 2
 10.5 0.5 2
 10.5 1 2
 10.5 1.5 2
 11 -1.5 2
 11 -1 2
 11 -0.5 2
 11 0 2
 11 0.5 2
 11 1 2
 11 1.5 2
 11.5 -1.5 2
 11.5 -1 2
 11.5 -0.5 2
 11.5 0 2
 11.5 0.5 2
 11.5 1 2
 11.5 1.5 2
 12 -1.5 2
 12 -1 2
 12 -0.5 2
 12 0 2
 12 0.5 2
 12 1 2
 12 1.5 2
 12.5 -1.5 2
 12.5 -1 2
 12.5 -0.5 2
 12.5 0 2
 12.5 0.5 2
 12.5 1 2
 12.5 1.5 2
 13 -1.5 2
 13 -1 2
 13 -0.5 2
 13 0 2
 13 0.5 2
 13 1 2
 13 1.5 2
 13.5 -1.5 2
 13.5 -1 2
 13.5 -0.5 2
 13.5 0 2
 13.5 0.5 2
 13.5 1 2
 13.5 1.5 2
 14 -1.5 2
 14 -1 2
 14 -0.5 2
 14 0 2
 14 0.5 2
 14 1 2
 14 1.5 2
 14.5 -1.5 2
 14.5 -1 2
 14.5 -0.5 2
 14.5 0 2
 14.5 0.5 2
 14.5 1 2
 14.5 1.5 2
 15 -1.5 2
 15 -1 2
 15 -0.5 2
 15 0 2
 15 0.5 2
 15 1 2
 15 1.5 2
 15.5 -1.5 2
 15.5 -1 2
 15.5 -0.5 2
 15.5 0 2
 15.5 0.5 2
 15.5 1 2
 15.5 1.5 2
 16 -1.5 2
 16 -1 2
 16 -0.5 2
 16 0 2
 16 0.5 2
 16 1 2
 16 1.5 2
 16.5 -1.5 2
 16.5 -1 2
 16.5 -0.5 2
 16.5 0 2
 16.5 0.5 2
 16.5 1 2
 16.5 1.5 2
 17 -1.5 2
 17 -1 2
 17 -0.5 2
 17 0 2
 17 0.5 2
 17 1 2
 17 1.5 2
 17.5 -1.5 2
 17.5 -1 2
 17.5 -0.5 2
 17.5 0 2
 17.5 0.5 2
 17.5 1 2
 17.5 1.5 2
 18 -1.5 2
 18 -1 2
 18 -0.5 2
 18 0 2
 18 0.5 2
 18 1 2
 18 1.5 2
 18.5 -1.5 2
 18.5 -1 2
 18.5 -0.5 2
 18.5 0 2
 18.5 0.5 2
 18.5 1 2
 18.5 1.5 2
 19 -1.5 2
 19 -1 2
 19 -0.5 2
 19 0 2
 19 0.5 2
 19 1 2
 19 1.5 2
 19.5 -1.5 2
 19.5 -1 2
 19.5 -0.5 2
 19.5 0 2
 19.5 0.5 2
 19.5 1 2
 19.5 1.5 2
 20 -1.5 2
 20 -1 2
 20 -0.5 2
 20 0 2
 20 0.5 2
 20 1 2
 20 1.5 2
 20.5 -1.5 2
 20.5 -1 2
 20.5 -0.5 2
 20.5 0 2
 20.5 0.5 2
 20.5 1 2
 20.5 1.5 2
 21 -1.5 2
 21 -1 2
 21 -0.5 2
 21 0 2
 21 0.5 2
 21 1 2
 21 1.5 2
 21.5 -1.5 2
 21.5 -1 2
 21.5 -0.5 2
 21.5 0 2
 21.5 0.5 2
 21.5 1 2
 21.5 1.5 2
 22 -1.5 2
 22 -1 2
 22 -0.5 2
 22 0 2
 22 0.5 2
 22 1 2
 22 1.5 2
 22.5 -1.5 2
 22.5 -1 2
 22.5 -0.5 2
 22.5 0 2
 22.5 0.5 2
 22.5 1 2
 22.5 1.5 2
 23 -1.5 2
 23 -1 2
 23 -0.5 2
 23 0 2
 23 0.5 2
 23 1 2
 23 1.5 2
 23.5 -1.5 2
 23.5 -1 2
 23.5 -0.5 2
 23.5 0 2
 23.5 0.5 2
 23.5 1 2
 23.5 1.5 2
 24 -1.5 2
 24 -1 2
 24 -0.5 2
 24 0 2
 24 0.5 2
 24 1 2
 24 1.5 2
 24.5 -1.5 2
 24.5 -1 2
 24.5 -0.5 2
 24.5 0 2
 24.5 0.5 2
 24.5 1 2
 24.5 1.5 2
 25 -1.5 2
 25 -1 2
 25 -0.5 2
 25 0 2
 25 0.5 2
 25 1 2
 25 1.5 2
 25.5 -1.5 2
 25.5 -1 2
 25.5 -0.5 2
 25.5 0 2
 25.5 0.5 2
 25.5 1 2
 25.5 1.5 2
 26 -1.5 2
 26 -1 2
 26 -0.5 2
 26 0 2
 26 0.5 2
 26 1 2
 26 1.5 2
 26.5 -1.5 2
 26.5 -1 2
 26.5 -0.5 2
 26.5 0 2
 26.5 0.5 2
 26.5 1 2
 26.5 1.5 2
 27 -1.5 2
 27 -1 2
 27 -0.5 2
 27 0 2
 27 0.5 2
 27 1 2
 27 1.5 2
 27.5 -1.5 2
 27.5 -1 2
 27.5 -0.5 2
 27.5 0 2
 27.5 0.5 2
 27.5 1 2
 27.5 1.5 2
 28 -1.5 2
 28 -1 2
 28 -0.5 2
 28 0 2
 28 0.5 2
 28 1 2
 28 1.5 2
 28.5 -1.5 2
 28.5 -1 2
 28.5 -0.5 2
 28.5 0 2
 28.5 0.5 2
 28.5 1 2
 28.5 1.5 2
 29 -1.5 2
 29 -1 2
 29 -0.5 2
 29 0 2
 29 0.5 2
 29 1 2
 29 1.5 2
 29.5 -1.5 2
 29.5 -1 2
 29.5 -0.5 2
 29.5 0 2
 29.5 0.5 2
 29.5 1 2
 29.5 1.5 2
 30 -1.5 2
 30 -1 2
 30 -0.5 2
 30 0 2
 30 0.5 2
 30 1 2
 30 1.5 2
 30.5 -1.5 2
 30.5 -1 2
 30.5 -0.5 2
 30.5 0 2
 30.5 0.5 2
 30.5 1 2
 30.5 1.5 2
 31 -1.5 2
 31 -1 2
 31 -0.5 2
 31 0 2
 31 0.5 2
 31 1 2
 31 1.5 2
 31.5 -1.5 2
 31.5 -1 2
 31.5 -0.5 2
 31.5 0 2
 31.5 0.5 2
 31.5 1 2
 31.5 1.5 2
 32 -1.5 2
 32 -1 2
 32 -0.5 2
 32 0 2
 32 0.5 2
 32 1 2
 32 1.5 2
 32.5 -1.5 2
 32.5 -1 2
 32.5 -0.5 2
 32.5 0 2
 32.5 0.5 2
 32.5 1 2
 32.5 1.5 2
 33 -1.5 2
 33 -1 2
 33 -0.5 2
 33 0 2
 33 0.5 2
 33 1 2
 33 1.5 2
 33.5 -1.5 2
 33.5 -1 2
 33.5 -0.5 2
 33.5 0 2
 33.5 0.5 2
 33.5 1 2
 33.5 1.5 2
 34 -1.5 2
 34 -1 2
 34 -0.5 2
 34 0 2
 34 0.5 2
 34 1 2
 34 1.5 2
 34.5 -1.5 2
 34.5 -1 2
 34.5 -0.5 2
 34.5 0 2
 34.5 0.5 2
 34.5 1 2
 34.5 1.5 2
 35 -1.5 2
 35 -1 2
 35 -0.5 2
 35 0 2
 35 0.5 2
 35 1 2
 35 1.5 2
 35.5 -1.5 2
 35.5 -1 2
 35.5 -0.5 2
 35.5 0 2
 35.5 0.5 2
 35.5 1 2
 35.5 1.5 2
 36 -1.5 2
 36 -1 2
 36 -0.5 2
 36 0 2
 36 0.5 2
 36 1 2
 36 1.5 2
 36.5 -1.5 2
 36.5 -1 2
 36.5 -0.5 2
 36.5 0 2
 36.5 0.5 2
 36.5 1 2
 36.5 1.5 2
 37 -1.5 2
 37 -1 2
 37 -0.5 2
 37 0 2
 37 0.5 2
 37 1 2
 37 1.5 2
 37.5 -1.5 2
 37.5 -1 2
 37.5 -0.5 2
 37.5 0 2
 37.5 0.5 2
 37.5 1 2
 37.5 1.5 2
 38 -1.5 2
 38 -1 2
 38 -0.5 2
 38 0 2
 38 0.5 2
 38 1 2
 38 1.5 2
 38.5 -1.5 2
 38.5 -1 2
 38.5 -0.5 2
 38.5 0 2
 38.5 0.5 2
 38.5 1 2
 38.5 1.5 2
 39 -1.5 2
 39 -1 2
 39 -0.5 2
 39 0 2
 39 0.5 2
 39 1 2
 39 1.5 2
 39.5 -1.5 2
 39.5 -1 2
 39.5 -0.5 2
 39.5 0 2
 39.5 0.5 2
 39.5 1 2
 39.5 1.5 2
 40 -1.5 2
 40 -1 2
 40 -0.5 2
 40 0 2
 40 0.5 2
 40 1 2
 40 1.5 2
 40.5 -1.5 2
 40.5 -1 2
 40.5 -0.5 2
 40.5 0 2
 40.5 0.5 2
 40.5 1 2
 40.5 1.5 2
 41 -1.5 2
 41 -1 2
 41 -0.5 2
 41 0 2
 41 0.5 2
 41 1 2
 41 1.5 2
 41.5 -1.5 2
 41.5 -1 2
 41.5 -0.5 2
 41.5 0 2
 41.5 0.5 2
 41.5 1 2
 41.5 1.5 2
 42 -1.5 2
 42 -1 2
 42 -0.5 2
 42 0 2
 42 0.5 2
 42 1 2
 42 1.5 2
 42.5 -1.5 2
 42.5 -1 2
 42.5 -0.5 2
 42.5 0 2
 42.5 0.5 2
 42.5 1 2
 42.5 1.5 2
 43 -1.5 2
 43 -1 2
 43 -0.5 2
 43 0 2
 43 0.5 2
 43 1 2
 43 1.5 2
 43.5 -1.5 2
 43.5 -1 2
 43.5 -0.5 2
 43.5 0 2
 43.5 0.5 2
 43.5 1 2
 43.5 1.5 2
 44 -1.5 2
 44 -1 2
 44 -0.5 2
 44 0 2
 44 0.5 2
 44 1 2
 44 1.5 2
 44.5 -1.5 2
 44.5 -1 2
 44.5 -0.5 2
 44.5 0 2
 44.5 0.5 2
 44.5 1 2
 44.5 1.5 2
 45 -1.5 2
 45 -1 2
 45 -0.5 2
 45 0 2
 45 0.5 2
 45 1 2
 45 1.5 2
 45.5 -1.5 2
 45.5 -1 2
 45.5 -0.5 2
 45.5 0 2
 45.5 0.5 2
 45.5 1 2
 45.5 1.5 2
 46 -1.5 2
 46 -1 2
 46 -0.5 2
 46 0 2
 46 0.5 2
 46 1 2
 46 1.5 2
 46.5 -1.5 2
 46.5 -1 2
 46.5 -0.5 2
 46.5 0 2
 46.5 0.5 2
 46.5 1 2
 46.5 1.5 2
 47 -1.5 2
 47 -1 2
 47 -0.5 2
 47 0 2
 47 0.5 2
 47 1 2
 47 1.5 2
 47.5 -1.5 2
 47.5 -1 2
 47.5 -0.5 2
 47.5 0 2
 47.5 0.5 2
 47.5 1 2
 47.5 1.5 2
 48 -1.5 2
 48 -1 2
 48 -0.5 2
 48 0 2
 48 0.5 2
 48 1 2
 48 1.5 2
 48.5 -1.5 2
 48.5 -1 2
 48.5 -0.5 2
 48.5 0 2
 48.5 0.5 2
 48.5 1 2
 48.5 1.5 2
 49 -1.5 2
 49 -1 2
 49 -0.5 2
 49 0 2
 49 0.5 2
 49 1 2
 49 1.5 2
 49.5 -1.5 2
 49.5 -1 2
 49.5 -0.5 2
 49.5 0 2
 49.5 0.5 2
 49.5 1 2
 49.5 1.5 2
 50 -1.5 2
 50 -1 2
 50 -0.5 2
 50 0 2
 50 0.5 2
 50 1 2
 50 1.5 2

VERTICES 1 708
707
 0 1 2 3 4
 5 6 7 8 9
 10 11 12 13 14
 15 16 17 18 19
 20 21 22 23 24
 25 26 27 28 29
 30 31 32 33 34
 35 36 37 38 39
 40 41 42 43 44
 45 46 47 48 49
 50 51 52 53 54
 55 56 57 58 59
 60 61 62 63 64
 65 66 67 68 69
 70 71 72 73 74
 75 76 77 78 79
 80 81 82 83 84
 85 86 87 88 89
 90 91 92 93 94
 95 96 97 98 99
 100 101 102 103 104
 105 106 107 108 109
 110 111 112 113 114
 115 116 117 118 119
 120 121 122 123 124
 125 126 127 128 129
 130 131 132 133 134
 135 136 137 138 139
 140 141 142 143 144
 145 146 147 148 149
 150 151 152 153 154
 155 156 157 158 159
 160 161 162 163 164
 165 166 167 168 169
 170 171 172 173 174
 175 176 177 178 179
 180 181 182 183 184
 185 186 187 188 189
 190 191 192 193 194
 195 196 197 198 199
 200 201 202 203 204
 205 206 207 208 209
 210 211 212 213 214
 215 216 217 218 219
 220 221 222 223 224
 225 226 227 228 229
 230 231 232 233 234
 235 236 237 238 239
 240 241 242 243 244
 245 246 247 248 249
 250 251 252 253 254
 255 256 257 258 259
 260 261 262 263 264
 265 266 267 268 269
 270 271 272 273 274
 275 276 277 278 279
 280 281 282 283 284
 285 286 287 288 289
 290 291 292 293 294
 295 296 297 298 299
 300 301 302 303 304
 305 306 307 308 309
 310 311 312 313 314
 315 316 317 318 319
 320 321 322 323 324
 325 326 327 328 329
 330 331 332 333 334
 335 336 337 338 339
 340 341 342 343 344
 345 346 347 348 349
 350 351 352 353 354
 355 356 357 358 359
 360 361 362 363 364
 365 366 367 368 369
 370 371 372 373 374
 375 376 377 378 379
 380 381 382 383 384
 385 386 387 388 389
 390 391 392 393 394
 395 396 397 398 399
 400 401 402 403 404
 405 406 407 408 409
 410 411 412 413 414
 415 416 417 418 419
 420 421 422 423 424
 425 426 427 428 429
 430 431 432 433 434
 435 436 437 438 439
 440 441 442 443 444
 445 446 447 448 449
 450 451 452 453 454
 455 456 457 458 459
 460 461 462 463 464
 465 466 467 468 469
 470 471 472 473 474
 475 476 477 478 479
 480 481 482 483 484
 485 486 487 488 489
 490 491 492 493 494
 495 496 497 498 499
 500 501 502 503 504
 505 506 507 508 509
 510 511 512 513 514
 515 516 517 518 519
 520 521 522 523 524
 525 526 527 528 529
 530 531 532 533 534
 535 536 537 538 539
 540 541 542 543 544
 545 546 547 548 549
 550 551 552 553 554
 555 556 557 558 559
 560 561 562 563 564
 565 566 567 568 569
 570 571 572 573 574
 575 576 577 578 579
 580 581 582 583 584
 585 586 587 588 589
 590 591 592 593 594
 595 596 597 598 599
 600 601 602 603 604
 605 606 607 608 609
 610 611 612 613 614
 615 616 617 618 619
 620 621 622 623 624
 625 626 627 628 629
 630 631 632 633 634
 635 636 637 638 639
 640 641 642 643 644
 645 646 647 648 649
 650 651 652 653 654
 655 656 657 658 659
 660 661 662 663 664
 665 666 667 668 669
 670 671 672 673 674
 675 676 677 678 679
 680 681 682 683 684
 685 686 687 688 689
 690 691 692 693 694
 695 696 697 698 699
 700 701 702 703 704
 705 706

POINT_DATA 707
FIELD FieldData 3
ReceiverID 1 707 int
 0
 1
 2
 3
 4
 5
 6
 7
 8
 9
 10
 11
 12
 13
 14
 15
 16
 17
 18
 19
 20
 21
 22
 23
 24
 25
 26
 27
 28
 29
 30
 31
 32
 33
 34
 35
 36
 37
 38
 39
 40
 41
 42
 43
 44
 45
 46
 47
 48
 49
 50
 51
 52
 53
 54
 55
 56
 57
 58
 59
 60
 61
 62
 63
 64
 65
 66
 67
 68
 69
 70
 71
 72
 73
 74
 75
 76
 77
 78
 79
 80
 81
 82
 83
 84
 85
 86
 87
 88
 89
 90
 91
 92
 93
 94
 95
 96
 97
 98
 99
 100
 101
 102
 103
 104
 105
 106
 107
 108
 109
 110
 111
 112
 113
 114
 115
 116
 117
 118
 119
 120
 121
 122
 123
 124
 125
 126
 127
 128
 129
 130
 131
 132
 133
 134
 135
 136
 137
 138
 139
 140
 141
 142
 143
 144
 145
 146
 147
 148
 149
 150
 151
 152
 153
 154
 155
 156
 157
 158
 159
 160
 161
 162
 163
 164
 165
 166
 167
 168
 169
 170
 171
 172
 173
 174
 175
 176
 177
 178
 179
 180
 181
 182
 183
 184
 185
 186
 187
 188
 189
 190
 191
 192
 193
 194
 195
 196
 197
 198
 199
 200
 201
 202
 203
 204
 205
 206
 207
 208
 209
 210
 211
 212
 213
 214
 215
 216
 217
 218
 219
 220
 221
 222
 223
 224
 225
 226
 227
 228
 229
 230
 231
 232
 233
 234
 235
 236
 237
 238
 239
 240
 241
 242
 243
 244
 245
 246
 247
 248
 249
 250
 251
 252
 253
 254
 255
 256
 257
 258
 259
 260
 261
 262
 263
 264
 265
 266
 267
 268
 269
 270
 271
 272
 273
 274
 275
 276
 277
 278
 279
 280
 281
 282
 283
 284
 285
 286
 287
 288
 289
 290
 291
 292
 293
 294
 295
 296
 297
 298
 299
 300
 301
 302
 303
 304
 305
 306
 307
 308
 309
 310
 311
 312
 313
 314
 315
 316
 317
 318
 319
 320
 321
 322
 323
 324
 325
 326
 327
 328
 329
 330
 331
 332
 333
 334
 335
 336
 337
 338
 339
 340
 341
 342
 343
 344
 345
 346
 347
 348
 349
 350
 351
 352
 353
 354
 355
 356
 357
 358
 359
 360
 361
 362
 363
 364
 365
 366
 367
 368
 369
 370
 371
 372
 373
 374
 375
 376
 377
 378
 379
 380
 381
 382
 383
 384
 385
 386
 387
 388
 389
 390
 391
 392
 393
 394
 395
 396
 397
 398
 399
 400
 401
 402
 403
 404
 405
 406
 407
 408
 409
 410
 411
 412
 413
 414
 415
 416
 417
 418
 419
 420
 421
 422
 423
 424
 425
 426
 427
 428
 429
 430
 431
 432
 433
 434
 435
 436
 437
 438
 439
 440
 441
 442
 443
 444
 445
 446
 447
 448
 449
 450
 451
 452
 453
 454
 455
 456
 457
 458
 459
 460
 461
 462
 463
 464
 465
 466
 467
 468
 469
 470
 471
 472
 473
 474
 475
 476
 477
 478
 479
 480
 481
 482
 483
 484
 485
 486
 487
 488
 489
 490
 491
 492
 493
 494
 495
 496
 497
 498
 499
 500
 501
 502
 503
 504
 505
 506
 507
 508
 509
 510
 511
 512
 513
 514
 515
 516
 517
 518
 519
 520
 521
 522
 523
 524
 525
 526
 527
 528
 529
 530
 531
 532
 533
 534
 535
 536
 537
 538
 539
 540
 541
 542
 543
 544
 545
 546
 547
 548
 549
 550
 551
 552
 553
 554
 555
 556
 557
 558
 559
 560
 561
 562
 563
 564
 565
 566
 567
 568
 569
 570
 571
 572
 573
 574
 575
 576
 577
 578
 579
 580
 581
 582
 583
 584
 585
 586
 587
 588
 589
 590
 591
 592
 593
 594
 595
 596
 597
 598
 599
 600
 601
 602
 603
 604
 605
 606
 607
 608
 609
 610
 611
 612
 613
 614
 615
 616
 617
 618
 619
 620
 621
 622
 623
 624
 625
 626
 627
 628
 629
 630
 631
 632
 633
 634
 635
 636
 637
 638
 639
 640
 641
 642
 643
 644
 645
 646
 647
 648
 649
 650
 651
 652
 653
 654
 655
 656
 657
 658
 659
 660
 661
 662
 663
 664
 665
 666
 667
 668
 669
 670
 671
 672
 673
 674
 675
 676
 677
 678
 679
 680
 681
 682
 683
 684
 685
 686
 687
 688
 689
 690
 691
 692
 693
 694
 695
 696
 697
 698
 699
 700
 701
 702
 703
 704
 705
 706
PowerdBm 1 707 float
 -300
 -300
 -300
 -300
 -300
 -300
 -300
 -300
 -300
 -300
 -300
 -300
 -300
 -300
 -300
 -300
 -300
 -300
 -300
 -300
 -300
 -300
 -300
 -300
 -300
 -300
 -300
 -300
 nan
 -24.237
 -27.8289
 -25.1848
 -27.8289
 -24.237
 nan
 nan
 -23.289
 -29.4795
 -22.8692
 -29.4795
 -23.289
 nan
 nan
 -27.6837
 -28.4082
 -20.4067
 -28.4082
 -27.6837
 nan
 nan
 -18.2573
 -20.5384
 -19.9031
 -20.5384
 -18.2573
 nan
 nan
 -23.4677
 -24.7008
 -26.8407
 -24.7008
 -23.4677
 nan
 nan
 -24.0748
 -22.3454
 -19.0601
 -22.3454
 -24.0748
 nan
 nan
 -30.184
 -24.8462
 -30.8678
 -24.8462
 -30.184
 nan
 nan
 -21.7422
 -22.8227
 -29.7913
 -22.8227
 -21.7422
 nan
 nan
 -26.8172
 -35.6948
 -21.105
 -35.6948
 -26.8172
 nan
 nan
 -25.865
 -28.8525
 -24.6747
 -28.8525
 -25.865
 nan
 nan
 -23.6377
 -26.3111
 -21.0208
 -26.3111
 -23.6377
 nan
 nan
 -31.1459
 -21.7613
 -22.4266
 -21.7613
 -31.1459
 nan
 nan
 -32.5464
 -31.5101
 -21.6833
 -31.5101
 -32.5464
 nan
 nan
 -23.2753
 -23.2036
 -34.0699
 -23.2036
 -23.2753
 nan
 nan
 -23.268
 -27.9637
 -25.4193
 -27.9637
 -23.268
 nan
 nan
 -23.7138
 -23.3196
 -21.8834
 -23.3196
 -23.7138
 nan
 nan
 -33.5212
 -38.219
 -40.4889
 -38.219
 -33.5212
 nan
 nan
 -34.5567
 -30.33
 -25.2699
 -30.33
 -34.5567
 nan
 nan
 -34.5867
 -28.6901
 -40.2404
 -28.6901
 -34.5867
 nan
 nan
 -25.9618
 -35.7713
 -25.0853
 -35.7713
 -25.9618
 nan
 nan
 -27.1327
 -28.7778
 -25.9119
 -28.7778
 -27.1327
 nan
 nan
 -26.0717
 -33.3222
 -34.0157
 -33.3222
 -26.0717
 nan
 nan
 -41.4304
 -30.6824
 -27.2681
 -30.6824
 -41.4304
 nan
 nan
 -29.086
 -27.5052
 -27.4959
 -27.5052
 -29.086
 nan
 nan
 -33.5478
 -33.7176
 -29.726
 -33.7176
 -33.5478
 nan
 nan
 -38.6634
 -32.2843
 -51.5107
 -32.2843
 -38.6634
 nan
 nan
 -33.5071
 -31.6344
 -28.631
 -31.6344
 -33.5071
 nan
 nan
 -39.4703
 -34.0031
 -25.6652
 -34.0031
 -39.4703
 nan
 nan
 -28.7076
 -33.3865
 -29.7165
 -33.3865
 -28.7076
 nan
 nan
 -26.7308
 -28.1564
 -30.5929
 -28.1564
 -26.7308
 nan
 nan
 -31.5594
 -28.0948
 -31.2476
 -28.0948
 -31.5594
 nan
 nan
 -37.2064
 -28.726
 -35.3224
 -28.726
 -37.2064
 nan
 nan
 -30.7945
 -38.3214
 -29.1212
 -38.3214
 -30.7945
 nan
 nan
 -29.6823
 -35.1963
 -36.8537
 -35.1963
 -29.6823
 nan
 nan
 -36.2469
 -36.2848
 -27.6027
 -36.2848
 -36.2469
 nan
 nan
 -32.6746
 -31.7015
 -30.0001
 -31.7015
 -32.6746
 nan
 nan
 -34.1803
 -31.4175
 -39.2507
 -31.4175
 -34.1803
 nan
 nan
 -27.8584
 -28.5882
 -34.3138
 -28.5882
 -27.8584
 nan
 nan
 -30.2964
 -28.2811
 -30.5444
 -28.2811
 -30.2964
 nan
 nan
 -28.1033
 -40.1625
 -29.9013
 -40.1625
 -28.1033
 nan
 nan
 -31.6061
 -33.866
 -35.9362
 -33.866
 -31.6061
 nan
 nan
 -34.5945
 -32.9449
 -29.1864
 -32.9449
 -34.5945
 nan
 nan
 -39.1868
 -34.625
 -27.1914
 -34.625
 -39.1868
 nan
 nan
 -39.4405
 -36.7164
 -31.9558
 -36.7164
 -39.4405
 nan
 nan
 -40.4292
 -48.9305
 -42.8553
 -48.9305
 -40.4292
 nan
 -43.9785
 -41.875
 -33.6593
 -30.6924
 -33.6593
 -41.875
 -43.9785
 nan
 -35.5865
 -31.3807
 -29.6233
 -31.3807
 -35.5865
 nan
 nan
 -37.8885
 -34.7266
 -33.5886
 -34.7266
 -37.8885
 nan
 nan
 -50.3617
 -48.5758
 -47.2228
 -48.5758
 -50.3617
 nan
 nan
 -40.9449
 -42.6142
 -41.4037
 -42.6142
 -40.9449
 nan
 nan
 -37.3053
 -36.9602
 -36.165
 -36.9602
 -37.3053
 nan
 nan
 -35.1047
 -33.1818
 -32.2647
 -33.1818
 -35.1047
 nan
 -42.7812
 -34.4725
 -30.7028
 -29.1865
 -30.7028
 -34.4725
 -42.7812
 nan
 -35.8315
 -30.0422
 -27.77
 -30.0422
 -35.8315
 nan
 nan
 -36.2891
 -31.0272
 -28.1937
 -31.0272
 -36.2891
 nan
 nan
 -34.1905
 -32.8633
 -30.7936
 -32.8633
 -34.1905
 nan
 nan
 -33.1583
 -33.6052
 -35.9661
 -33.6052
 -33.1583
 nan
 -50.7493
 -34.5528
 -33.6169
 -36.6915
 -33.6169
 -34.5528
 nan
 -52.0157
 -39.0009
 -34.4967
 -31.67
 -34.4967
 -39.0009
 nan
 -48.1096
 -48.0046
 -36.2344
 -28.9743
 -36.2344
 -48.0046
 -47.4067
 nan
 -52.8473
 -37.7617
 -28.2332
 -37.7617
 -52.8473
 nan
 nan
 -49.9334
 -37.1388
 -28.9755
 -37.1388
 -49.9334
 nan
 nan
 -45.6486
 -35.7401
 -31.0605
 -35.7401
 -45.6486
 nan
 nan
 -40.378
 -35.6376
 -34.9563
 -35.6376
 -40.378
 nan
 nan
 -37.3664
 -37.141
 -42.8547
 -37.141
 -37.3664
 nan
 nan
 -36.7849
 -40.0047
 -47.8109
 -40.0047
 -36.7849
 nan
 nan
 -38.8903
 -42.9714
 -39.9873
 -42.9714
 -38.8903
 nan
 nan
 -44.923
 -42.0742
 -37.6733
 -42.0742
 -44.923
 nan
 nan
 -44.7585
 -39.4078
 -37.4098
 -39.4078
 -44.7585
 nan
 nan
 -38.2913
 -38.008
 -38.3929
 -38.008
 -38.2913
 nan
 nan
 -35.189
 -37.8763
 -40.6679
 -37.8763
 -35.189
 nan
 -46.6112
 -33.9576
 -38.3705
 -44.8255
 -38.3705
 -33.9576
 nan
 nan
 -34.1756
 -38.8833
 -52.0426
 -38.8833
 -34.1756
 nan
 nan
 -35.9198
 -39.2628
 -54.126
 -39.2628
 -35.9198
 nan
 nan
 -39.3978
 -39.3052
 -49.3441
 -39.3052
 -39.3978
 nan
 nan
 -42.233
 -38.5534
 -46.7363
 -38.5534
 -42.233
 nan
 nan
 -39.467
 -37.3908
 -44.5691
 -37.3908
 -39.467
 nan
 nan
 -36.7493
 -36.6536
 -42.0975
 -36.6536
 -36.7493
 nan
 nan
 -35.6206
 -36.6786
 -39.4815
 -36.6786
 -35.6206
 nan
 nan
 -35.7703
 -37.2511
 -37.115
 -37.2511
 -35.7703
 nan
 nan
 -37.0645
 -37.6328
 -35.2252
 -37.6328
 -37.0645
 nan
 nan
 -39.791
 -37.1205
 -33.8435
 -37.1205
 -39.791
 nan
 nan
 -45.3971
 -35.9964
 -32.8775
 -35.9964
 -45.3971
 nan
 nan
 -52.7518
 -34.8635
 -32.1843
 -34.8635
 -52.7518
 nan
 nan
 -42.2294
 -33.92
 -31.6475
 -33.92
 -42.2294
 nan
 nan
 -37.2085
 -33.1308
 -31.2384
 -33.1308
 -37.2085
 nan
 nan
 -34.4483
 -32.4696
 -31.0134
 -32.4696
 -34.4483
 nan
 nan
 -32.9226
 -31.9861
 -31.0518
 -31.9861
 -32.9226
 nan
 nan
 -32.2304
 -31.7634
 -31.3948
 -31.7634
 -32.2304
 nan
 nan
 -32.1326
 -31.8662
 -32.0051
 -31.8662
 -32.1326
 nan
 nan
 -32.4193
 -32.3238
 -32.7401
 -32.3238
 -32.4193
 nan
 nan
 -32.8649
 -33.1329
 -33.3665
 -33.1329
 -32.8649
 nan
 nan
 -33.2547
 -34.265
 -33.684
 -34.265
 -33.2547
 nan
 nan
 -33.4714
 -35.6704
 -33.6911
 -35.6704
 -33.4714
 nan
 nan
 -33.5334
 -37.2839
 -33.5552
 -37.2839
 -33.5334
 nan
 nan
 -33.5204
 -39.0349
 -33.4323
 -39.0349
 -33.5204
 nan
 nan
 -33.4824
 -40.8646
 -33.3753
 -40.8646
 -33.4824
 nan
Phase 1 707 float
 0
 0
 0
 0
 0
 0
 0
 0
 0
 0
 0
 0
 0
 0
 0
 0
 0
 0
 0
 0
 0
 0
 0
 0
 0
 0
 0
 0
 nan
 133.224
 -161.007
 -106.857
 -161.007
 133.224
 nan
 nan
 25.9207
 -143.014
 70.1106
 -143.014
 25.9207
 nan
 nan
 14.0994
 -36.5578
 110.081
 -36.5578
 14.0994
 nan
 nan
 -157.066
 -62.9847
 2.54305
 -62.9847
 -157.066
 nan
 nan
 76.2402
 -96.7498
 -54.3436
 -96.7498
 76.2402
 nan
 nan
 42.1812
 101.609
 62.1213
 101.609
 42.1812
 nan
 nan
 -135.178
 -152.081
 22.3172
 -152.081
 -135.178
 nan
 nan
 50.6986
 -79.8202
 25.7919
 -79.8202
 50.6986
 nan
 nan
 50.7024
 -67.8579
 134.017
 -67.8579
 50.7024
 nan
 nan
 177.585
 -48.4893
 -36.8655
 -48.4893
 177.585
 nan
 nan
 106.298
 -151.888
 -46.0122
 -151.888
 106.298
 nan
 nan
 131.434
 140.44
 -97.2927
 140.44
 131.434
 nan
 nan
 35.0547
 105.847
 169.365
 105.847
 35.0547
 nan
 nan
 8.54984
 28.1858
 46.4313
 28.1858
 8.54984
 nan
 nan
 -24.5777
 -96.718
 107.624
 -96.718
 -24.5777
 nan
 nan
 -71.378
 -165.737
 -71.4281
 -165.737
 -71.378
 nan
 nan
 -137.705
 68.6879
 84.7884
 68.6879
 -137.705
 nan
 nan
 -10.8991
 -0.0727813
 103.825
 -0.0727813
 -10.8991
 nan
 nan
 43.3142
 -95.9828
 51.2721
 -95.9828
 43.3142
 nan
 nan
 -86.3383
 -103.106
 -141.709
 -103.106
 -86.3383
 nan
 nan
 -133.039
 18.5292
 -159.561
 18.5292
 -133.039
 nan
 nan
 130.62
 -45.8362
 -143.581
 -45.8362
 130.62
 nan
 nan
 -6.6226
 151.014
 -149.025
 151.014
 -6.6226
 nan
 nan
 -49.6645
 127.168
 -167.954
 127.168
 -49.6645
 nan
 nan
 -102.492
 92.7383
 -177.636
 92.7383
 -102.492
 nan
 nan
 -19.175
 -174.954
 29.9995
 -174.954
 -19.175
 nan
 nan
 13.052
 68.7904
 171.407
 68.7904
 13.052
 nan
 nan
 78.5637
 42.804
 58.9488
 42.804
 78.5637
 nan
 nan
 62.5579
 -112.662
 25.1033
 -112.662
 62.5579
 nan
 nan
 -19.6148
 160.691
 -61.9683
 160.691
 -19.6148
 nan
 nan
 -107.273
 54.2827
 -4.42585
 54.2827
 -107.273
 nan
 nan
 135.355
 19.4335
 -51.0904
 19.4335
 135.355
 nan
 nan
 34.6879
 -142.435
 -153.537
 -142.435
 34.6879
 nan
 nan
 -78.2378
 -138.7
 110.382
 -138.7
 -78.2378
 nan
 nan
 -148.053
 -152.278
 -8.24475
 -152.278
 -148.053
 nan
 nan
 65.1936
 120.184
 -57.2318
 120.184
 65.1936
 nan
 nan
 -78.9951
 38.1133
 175.57
 38.1133
 -78.9951
 nan
 nan
 -153.544
 -68.1968
 125.466
 -68.1968
 -153.544
 nan
 nan
 109.887
 -134.885
 124.939
 -134.885
 109.887
 nan
 nan
 18.8011
 139.732
 84.074
 139.732
 18.8011
 nan
 nan
 -57.6196
 -47.2633
 -21.5407
 -47.2633
 -57.6196
 nan
 nan
 -157.465
 -130.859
 -146.13
 -130.859
 -157.465
 nan
 nan
 160.509
 122.093
 146.281
 122.093
 160.509
 nan
 nan
 -165.87
 28.2884
 86.8475
 28.2884
 -165.87
 nan
 nan
 148.652
 -157.394
 163.071
 -157.394
 148.652
 nan
 74.7646
 -3.80629
 89.5155
 123.053
 89.5155
 -3.80629
 74.7646
 nan
 -78.3496
 22.4858
 60.443
 22.4858
 -78.3496
 nan
 nan
 -127.747
 -41.2477
 -1.49136
 -41.2477
 -127.747
 nan
 nan
 -115.563
 -107.299
 -42.3137
 -107.299
 -115.563
 nan
 nan
 -73.1703
 31.2637
 41.7761
 31.2637
 -73.1703
 nan
 nan
 -102.072
 -12.798
 2.91871
 -12.798
 -102.072
 nan
 nan
 -140.424
 -59.734
 -41.8728
 -59.734
 -140.424
 nan
 96.0144
 160.987
 -122.969
 -103.235
 -122.969
 160.987
 96.0144
 nan
 78.0379
 160.217
 -176.633
 160.217
 78.0379
 nan
 nan
 -30.0604
 71.7076
 102.457
 71.7076
 -30.0604
 nan
 nan
 -132.313
 -31.4314
 12.9973
 -31.4314
 -132.313
 nan
 nan
 140.99
 -144.942
 -98.5117
 -144.942
 140.99
 nan
 68.6625
 61.2266
 105.99
 105.122
 105.99
 61.2266
 nan
 70.5778
 -14.9824
 -0.750951
 -13.5852
 -0.750951
 -14.9824
 nan
 62.9902
 -78.347
 -112.626
 -110.726
 -112.626
 -78.347
 59.8504
 nan
 -83.9445
 125.25
 156.954
 125.25
 -83.9445
 nan
 nan
 -174.413
 1.22796
 65.4676
 1.22796
 -174.413
 nan
 nan
 57.4563
 -107.799
 -25.5346
 -107.799
 57.4563
 nan
 nan
 -49.8057
 154.314
 -114.141
 154.314
 -49.8057
 nan
 nan
 -142.564
 61.8847
 168.351
 61.8847
 -142.564
 nan
 nan
 130.734
 -23.3946
 -166.748
 -23.3946
 130.734
 nan
 nan
 48.9931
 -90.2316
 128.049
 -90.2316
 48.9931
 nan
 nan
 -14.033
 -145.813
 39.0108
 -145.813
 -14.033
 nan
 nan
 -15.4908
 138.233
 -54.0256
 138.233
 -15.4908
 nan
 nan
 -82.5041
 47.3072
 -147.165
 47.3072
 -82.5041
 nan
 nan
 -170.59
 -53.2524
 122.36
 -53.2524
 -170.59
 nan
 -161.057
 96.08
 -162.174
 37.8492
 -162.174
 96.08
 nan
 nan
 -0.211269
 82.9294
 -26.5653
 82.9294
 -0.211269
 nan
 nan
 -100.826
 -35.5667
 -34.6988
 -35.5667
 -100.826
 nan
 nan
 146.999
 -157.521
 -93.7298
 -157.521
 146.999
 nan
 nan
 5.71342
 80.1845
 -174.229
 80.1845
 5.71342
 nan
 nan
 -132.504
 -37.1476
 99.7259
 -37.1476
 -132.504
 nan
 nan
 114.232
 -149.908
 10.0735
 -149.908
 114.232
 nan
 nan
 8.48152
 97.8407
 -82.6277
 97.8407
 8.48152
 nan
 nan
 -96.0563
 -18.1202
 -177.922
 -18.1202
 -96.0563
 nan
 nan
 158.622
 -139.673
 84.3129
 -139.673
 158.622
 nan
 nan
 51.2318
 97.1437
 -16.0436
 97.1437
 51.2318
 nan
 nan
 -63.8199
 -22.2599
 -119.069
 -22.2599
 -63.8199
 nan
 nan
 98.3901
 -137.536
 135.49
 -137.536
 98.3901
 nan
 nan
 -52.9977
 109.612
 28.3215
 109.612
 -52.9977
 nan
 nan
 -163.224
 -1.65916
 -79.732
 -1.65916
 -163.224
 nan
 nan
 90.6461
 -111.282
 171.831
 -111.282
 90.6461
 nan
 nan
 -15.0972
 140.962
 62.9106
 140.962
 -15.0972
 nan
 nan
 -121.805
 34.9913
 -47.1018
 34.9913
 -121.805
 nan
 nan
 129.626
 -69.5541
 -159.08
 -69.5541
 129.626
 nan
 nan
 18.5301
 -173.127
 86.209
 -173.127
 18.5301
 nan
 nan
 -95.3367
 83.8601
 -31.2713
 83.8601
 -95.3367
 nan
 nan
 148.498
 -18.8922
 -150.337
 -18.8922
 148.498
 nan
 nan
 31.1399
 -121.527
 90.7655
 -121.527
 31.1399
 nan
 nan
 -86.3584
 136.025
 -27.0116
 136.025
 -86.3584
 nan
 nan
 156.447
 34.0909
 -143.817
 34.0909
 156.447
 nan
 nan
 39.5412
 -66.7447
 99.7844
 -66.7447
 39.5412
 nan
